22
Properties=species:S:1:pos:R:3:forces:R:3 dipe.pdb=T energy=-13502.232135812643 pbc="F F F"
H        7.08461255       1.87169617       1.79841415      -0.00247897      -0.00909189       0.01661527
C        6.37485263       2.63982250       2.08365852      -0.00362120       0.01116635       0.00267893
H        5.48257203       2.54173466       1.46740645      -0.02604241      -0.00917059       0.01525849
H        6.80348766       3.62238241       1.89958666       0.00003042       0.02289710       0.00278033
C        6.01954770       2.46059681       3.54325376       0.00729112       0.01276166       0.01251819
O        6.29757806       1.45216762       4.17062450      -0.01893612      -0.00229590       0.00621534
N        5.36433846       3.50388484       4.11019696      -0.00722968       0.01158647       0.01417735
H        5.06240556       4.29985536       3.57082480       0.01634705      -0.01001416       0.01188250
C        4.91003511       3.46554978       5.48018825       0.01635161      -0.00530157       0.00054869
H        4.44025498       2.49876501       5.67205173       0.01348410       0.00612343      -0.02470553
C        6.06263210       3.65753210       6.47035721      -0.00043498      -0.00828479      -0.00814467
H        5.73435216       3.50115362       7.49619650      -0.01125024       0.01436189       0.02042881
H        6.84187599       2.93501362       6.25039184       0.00137806      -0.02934566      -0.00864711
H        6.47155648       4.66209127       6.38573496       0.00546356       0.01761326      -0.01821163
C        3.86916680       4.57216815       5.64513348       0.01600627      -0.01923134      -0.02044842
O        3.69939603       5.42399350       4.78942604      -0.01421806       0.01688739       0.00366497
N        3.18472472       4.54090280       6.81019359       0.02069645      -0.01503478      -0.00783871
H        3.40319387       3.81784537       7.46967213       0.01055912      -0.01864095      -0.00906790
C        2.22763901       5.56186196       7.18595330      -0.00528959       0.00373627      -0.00760230
H        2.00894191       6.15529603       6.30603519      -0.00944959       0.01063061      -0.02866429
H        1.30914958       5.10517853       7.54497752      -0.02299196      -0.00997693       0.00973526
H        2.62568668       6.21750684       7.95872299       0.01433496       0.00862453       0.01682633
